<?xml version="1.0" encoding="UTF-8"?>

<!-- generated on 2025-06-27 15:12:26 by Eclipse SUMO GUI Version 1.19.0
<configuration xmlns:xsi="http://www.w3.org/2001/XMLSchema-instance" xsi:noNamespaceSchemaLocation="http://sumo.dlr.de/xsd/sumoConfiguration.xsd">

    <input>
        <net-file value="/home/paul/sumo_platform/testbed/testbed/traffic_simulation/new_osm.net.xml"/>
        <route-files value="/home/paul/sumo_platform/testbed/testbed/traffic_simulation/routes_1000.rou.xml"/>
        <additional-files value="/home/paul/sumo_platform/testbed/testbed/traffic_simulation/osm.poly.xml.gz,/home/paul/sumo_platform/testbed/testbed/traffic_simulation/tls.xml"/>
    </input>

    <output>
        <tripinfo-output value="tripinfo.xml"/>
    </output>

    <time>
        <step-length value="1"/>
    </time>

    <processing>
        <ignore-route-errors value="true"/>
        <scale value="1"/>
    </processing>

    <routing>
        <routing-algorithm value="astar"/>
        <device.rerouting.adaptation-steps value="18"/>
        <device.rerouting.adaptation-interval value="10"/>
    </routing>

    <report>
        <verbose value="true"/>
        <duration-log.statistics value="true"/>
        <no-step-log value="true"/>
    </report>

    <traci_server>
        <remote-port value="45331"/>
    </traci_server>

    <gui_only>
        <gui-settings-file value="/home/paul/sumo_platform/testbed/testbed/traffic_simulation/osm.view.xml"/>
    </gui_only>

</configuration>
-->

<tripinfos xmlns:xsi="http://www.w3.org/2001/XMLSchema-instance" xsi:noNamespaceSchemaLocation="http://sumo.dlr.de/xsd/tripinfo_file.xsd">
    <tripinfo id="13" depart="10.00" departLane="-244450533#5_0" departPos="5.10" departSpeed="0.00" departDelay="0.00" arrival="207.00" arrivalLane="542034658#0_0" arrivalPos="40.46" arrivalSpeed="15.38" duration="197.00" routeLength="2807.19" waitingTime="16.00" waitingCount="5" stopTime="0.00" timeLoss="89.42" rerouteNo="0" devices="tripinfo_13" vType="DEFAULT_VEHTYPE" speedFactor="1.12" vaporized=""/>
    <tripinfo id="168" depart="172.00" departLane="-60443718#3_0" departPos="0.20" departSpeed="0.00" departDelay="0.00" arrival="274.00" arrivalLane="980789621-AddedOnRampEdge_0" arrivalPos="94.45" arrivalSpeed="30.83" duration="102.00" routeLength="1047.19" waitingTime="7.00" waitingCount="2" stopTime="0.00" timeLoss="50.42" rerouteNo="0" devices="tripinfo_168" vType="DEFAULT_VEHTYPE" speedFactor="1.13" vaporized=""/>
    <tripinfo id="43" depart="37.00" departLane="158758843#2_0" departPos="5.10" departSpeed="0.00" departDelay="0.00" arrival="299.00" arrivalLane="251288086#0_0" arrivalPos="32.24" arrivalSpeed="12.73" duration="262.00" routeLength="2291.19" waitingTime="57.00" waitingCount="8" stopTime="0.00" timeLoss="144.76" rerouteNo="0" devices="tripinfo_43" vType="DEFAULT_VEHTYPE" speedFactor="1.03" vaporized=""/>
    <tripinfo id="145" depart="146.00" departLane="-771338336_0" departPos="5.10" departSpeed="0.00" departDelay="0.00" arrival="303.00" arrivalLane="62080941#4_0" arrivalPos="29.44" arrivalSpeed="16.06" duration="157.00" routeLength="1850.07" waitingTime="9.00" waitingCount="1" stopTime="0.00" timeLoss="68.42" rerouteNo="1" devices="tripinfo_145" vType="DEFAULT_VEHTYPE" speedFactor="1.16" vaporized=""/>
    <tripinfo id="67" depart="65.00" departLane="266064126#2_0" departPos="5.10" departSpeed="0.00" departDelay="0.00" arrival="328.00" arrivalLane="173103611_0" arrivalPos="20.66" arrivalSpeed="1.95" duration="263.00" routeLength="3064.75" waitingTime="23.00" waitingCount="5" stopTime="0.00" timeLoss="114.51" rerouteNo="0" devices="tripinfo_67" vType="DEFAULT_VEHTYPE" speedFactor="0.94" vaporized=""/>
    <tripinfo id="33" depart="24.00" departLane="28727306_0" departPos="5.10" departSpeed="0.00" departDelay="0.00" arrival="335.00" arrivalLane="-79211512#1_0" arrivalPos="8.26" arrivalSpeed="15.84" duration="311.00" routeLength="2977.34" waitingTime="85.00" waitingCount="4" stopTime="0.00" timeLoss="141.21" rerouteNo="0" devices="tripinfo_33" vType="DEFAULT_VEHTYPE" speedFactor="1.18" vaporized=""/>
    <tripinfo id="239" depart="252.00" departLane="435422117_0" departPos="5.10" departSpeed="0.00" departDelay="0.00" arrival="363.00" arrivalLane="-384232893#24_0" arrivalPos="65.64" arrivalSpeed="13.05" duration="111.00" routeLength="1168.80" waitingTime="1.00" waitingCount="1" stopTime="0.00" timeLoss="23.06" rerouteNo="0" devices="tripinfo_239" vType="DEFAULT_VEHTYPE" speedFactor="0.97" vaporized=""/>
    <tripinfo id="268" depart="276.00" departLane="254090152_0" departPos="5.10" departSpeed="0.00" departDelay="0.00" arrival="376.00" arrivalLane="173012839#1_0" arrivalPos="0.20" arrivalSpeed="16.42" duration="100.00" routeLength="949.94" waitingTime="1.00" waitingCount="1" stopTime="0.00" timeLoss="24.71" rerouteNo="0" devices="tripinfo_268" vType="DEFAULT_VEHTYPE" speedFactor="0.75" vaporized=""/>
    <tripinfo id="3" depart="2.00" departLane="704101600#5_0" departPos="1.65" departSpeed="0.00" departDelay="0.00" arrival="381.00" arrivalLane="-330460077#0_0" arrivalPos="15.60" arrivalSpeed="14.89" duration="379.00" routeLength="3759.49" waitingTime="105.00" waitingCount="6" stopTime="0.00" timeLoss="215.20" rerouteNo="0" devices="tripinfo_3" vType="DEFAULT_VEHTYPE" speedFactor="1.08" vaporized=""/>
    <tripinfo id="227" depart="245.00" departLane="442788103#16_0" departPos="5.10" departSpeed="0.00" departDelay="0.00" arrival="383.00" arrivalLane="-330229638#5_0" arrivalPos="0.20" arrivalSpeed="3.42" duration="138.00" routeLength="1205.25" waitingTime="27.00" waitingCount="4" stopTime="0.00" timeLoss="75.57" rerouteNo="1" devices="tripinfo_227" vType="DEFAULT_VEHTYPE" speedFactor="1.15" vaporized=""/>
    <tripinfo id="140" depart="142.00" departLane="189781439#2_0" departPos="5.10" departSpeed="0.00" departDelay="0.00" arrival="398.00" arrivalLane="-62080939#3_0" arrivalPos="17.25" arrivalSpeed="14.28" duration="256.00" routeLength="2804.54" waitingTime="34.00" waitingCount="4" stopTime="0.00" timeLoss="118.73" rerouteNo="1" devices="tripinfo_140" vType="DEFAULT_VEHTYPE" speedFactor="1.12" vaporized=""/>
    <tripinfo id="232" depart="248.00" departLane="-26791235_0" departPos="5.10" departSpeed="0.00" departDelay="0.00" arrival="403.00" arrivalLane="266057209#9_0" arrivalPos="52.53" arrivalSpeed="16.99" duration="155.00" routeLength="1469.71" waitingTime="27.00" waitingCount="3" stopTime="0.00" timeLoss="81.69" rerouteNo="0" devices="tripinfo_232" vType="DEFAULT_VEHTYPE" speedFactor="1.24" vaporized=""/>
    <tripinfo id="271" depart="279.00" departLane="-23760625#3_0" departPos="0.77" departSpeed="0.00" departDelay="0.00" arrival="405.00" arrivalLane="48769256_1" arrivalPos="40.98" arrivalSpeed="14.46" duration="126.00" routeLength="1530.55" waitingTime="2.00" waitingCount="1" stopTime="0.00" timeLoss="35.79" rerouteNo="0" devices="tripinfo_271" vType="DEFAULT_VEHTYPE" speedFactor="0.96" vaporized=""/>
    <tripinfo id="102" depart="101.00" departLane="269542356#0_0" departPos="5.10" departSpeed="0.00" departDelay="0.00" arrival="411.00" arrivalLane="-557563419#7_0" arrivalPos="13.17" arrivalSpeed="19.16" duration="310.00" routeLength="1675.10" waitingTime="162.00" waitingCount="7" stopTime="0.00" timeLoss="235.59" rerouteNo="0" devices="tripinfo_102" vType="DEFAULT_VEHTYPE" speedFactor="1.12" vaporized=""/>
    <tripinfo id="149" depart="150.00" departLane="264410143#2_0" departPos="5.10" departSpeed="0.00" departDelay="0.00" arrival="436.00" arrivalLane="-244450533#5_0" arrivalPos="40.45" arrivalSpeed="17.95" duration="286.00" routeLength="4063.62" waitingTime="28.00" waitingCount="4" stopTime="0.00" timeLoss="131.80" rerouteNo="0" devices="tripinfo_149" vType="DEFAULT_VEHTYPE" speedFactor="1.14" vaporized=""/>
    <tripinfo id="277" depart="289.00" departLane="-266057208#1_0" departPos="5.10" departSpeed="0.00" departDelay="0.00" arrival="440.00" arrivalLane="-23766392#9_0" arrivalPos="61.86" arrivalSpeed="27.49" duration="151.00" routeLength="1311.40" waitingTime="37.00" waitingCount="5" stopTime="0.00" timeLoss="103.60" rerouteNo="0" devices="tripinfo_277" vType="DEFAULT_VEHTYPE" speedFactor="1.26" vaporized=""/>
    <tripinfo id="201" depart="214.00" departLane="-206134505#3_0" departPos="5.10" departSpeed="0.00" departDelay="0.00" arrival="450.00" arrivalLane="-158624871#14_0" arrivalPos="162.08" arrivalSpeed="22.16" duration="236.00" routeLength="1845.75" waitingTime="74.00" waitingCount="7" stopTime="0.00" timeLoss="158.62" rerouteNo="0" devices="tripinfo_201" vType="DEFAULT_VEHTYPE" speedFactor="1.03" vaporized=""/>
    <tripinfo id="30" depart="22.00" departLane="183946733#1_0" departPos="5.10" departSpeed="0.00" departDelay="0.00" arrival="466.00" arrivalLane="-442788103#6_0" arrivalPos="81.95" arrivalSpeed="20.47" duration="444.00" routeLength="4311.59" waitingTime="115.00" waitingCount="9" stopTime="0.00" timeLoss="249.33" rerouteNo="0" devices="tripinfo_30" vType="DEFAULT_VEHTYPE" speedFactor="0.95" vaporized=""/>
    <tripinfo id="162" depart="163.00" departLane="-101898714#2_0" departPos="5.10" departSpeed="0.00" departDelay="0.00" arrival="511.00" arrivalLane="238689670#0_0" arrivalPos="4.05" arrivalSpeed="24.00" duration="348.00" routeLength="3625.89" waitingTime="128.00" waitingCount="4" stopTime="0.00" timeLoss="184.39" rerouteNo="0" devices="tripinfo_162" vType="DEFAULT_VEHTYPE" speedFactor="0.91" vaporized=""/>
    <tripinfo id="248" depart="263.00" departLane="-71324231#3_0" departPos="5.10" departSpeed="0.00" departDelay="0.00" arrival="520.00" arrivalLane="73567629#5_0" arrivalPos="40.06" arrivalSpeed="13.88" duration="257.00" routeLength="2137.99" waitingTime="89.00" waitingCount="5" stopTime="0.00" timeLoss="155.74" rerouteNo="0" devices="tripinfo_248" vType="DEFAULT_VEHTYPE" speedFactor="1.01" vaporized=""/>
    <tripinfo id="173" depart="173.00" departLane="-158804988_0" departPos="5.10" departSpeed="0.00" departDelay="0.00" arrival="523.00" arrivalLane="330461426#1_0" arrivalPos="131.26" arrivalSpeed="12.86" duration="350.00" routeLength="2842.10" waitingTime="115.00" waitingCount="7" stopTime="0.00" timeLoss="189.78" rerouteNo="1" devices="tripinfo_173" vType="DEFAULT_VEHTYPE" speedFactor="0.98" vaporized=""/>
    <tripinfo id="424" depart="434.00" departLane="330331427#1_0" departPos="5.10" departSpeed="0.00" departDelay="0.00" arrival="525.00" arrivalLane="173012836#1-AddedOnRampEdge_1" arrivalPos="93.83" arrivalSpeed="19.26" duration="91.00" routeLength="825.99" waitingTime="16.00" waitingCount="2" stopTime="0.00" timeLoss="50.25" rerouteNo="0" devices="tripinfo_424" vType="DEFAULT_VEHTYPE" speedFactor="1.10" vaporized=""/>
    <tripinfo id="59" depart="55.00" departLane="413955653#2_0" departPos="5.10" departSpeed="0.00" departDelay="0.00" arrival="539.00" arrivalLane="173103611_0" arrivalPos="20.66" arrivalSpeed="1.74" duration="484.00" routeLength="4543.60" waitingTime="123.00" waitingCount="8" stopTime="0.00" timeLoss="264.48" rerouteNo="1" devices="tripinfo_59" vType="DEFAULT_VEHTYPE" speedFactor="0.90" vaporized=""/>
    <tripinfo id="256" depart="270.00" departLane="311576783#8_0" departPos="5.10" departSpeed="0.00" departDelay="0.00" arrival="540.00" arrivalLane="23766960#3_0" arrivalPos="0.20" arrivalSpeed="6.23" duration="270.00" routeLength="2114.52" waitingTime="76.00" waitingCount="7" stopTime="0.00" timeLoss="148.20" rerouteNo="0" devices="tripinfo_256" vType="DEFAULT_VEHTYPE" speedFactor="1.11" vaporized=""/>
    <tripinfo id="45" depart="41.00" departLane="-60443718#1_0" departPos="5.10" departSpeed="0.00" departDelay="0.00" arrival="544.00" arrivalLane="-208601079#0_0" arrivalPos="61.98" arrivalSpeed="14.49" duration="503.00" routeLength="4728.80" waitingTime="159.00" waitingCount="14" stopTime="0.00" timeLoss="300.64" rerouteNo="0" devices="tripinfo_45" vType="DEFAULT_VEHTYPE" speedFactor="1.09" vaporized=""/>
    <tripinfo id="355" depart="359.00" departLane="-26788400#2_0" departPos="5.10" departSpeed="0.00" departDelay="0.00" arrival="563.00" arrivalLane="-158803689#1_0" arrivalPos="1.25" arrivalSpeed="13.44" duration="204.00" routeLength="1874.63" waitingTime="39.00" waitingCount="3" stopTime="0.00" timeLoss="106.47" rerouteNo="0" devices="tripinfo_355" vType="DEFAULT_VEHTYPE" speedFactor="0.98" vaporized=""/>
    <tripinfo id="88" depart="87.00" departLane="-1257895203#6_0" departPos="5.10" departSpeed="0.00" departDelay="0.00" arrival="566.00" arrivalLane="860377094#1_1" arrivalPos="301.24" arrivalSpeed="26.50" duration="479.00" routeLength="4912.82" waitingTime="93.00" waitingCount="12" stopTime="0.00" timeLoss="258.30" rerouteNo="0" devices="tripinfo_88" vType="DEFAULT_VEHTYPE" speedFactor="0.98" vaporized=""/>
    <tripinfo id="520" depart="534.00" departLane="505644563#1_0" departPos="5.10" departSpeed="0.00" departDelay="0.00" arrival="575.00" arrivalLane="-23760430#5_0" arrivalPos="78.65" arrivalSpeed="19.86" duration="41.00" routeLength="325.38" waitingTime="7.00" waitingCount="1" stopTime="0.00" timeLoss="20.62" rerouteNo="0" devices="tripinfo_520" vType="DEFAULT_VEHTYPE" speedFactor="0.92" vaporized=""/>
    <tripinfo id="117" depart="115.00" departLane="-442788103#3_0" departPos="5.10" departSpeed="0.00" departDelay="0.00" arrival="581.00" arrivalLane="340138929#0_0" arrivalPos="25.93" arrivalSpeed="11.76" duration="466.00" routeLength="3954.85" waitingTime="106.00" waitingCount="9" stopTime="0.00" timeLoss="214.15" rerouteNo="0" devices="tripinfo_117" vType="DEFAULT_VEHTYPE" speedFactor="1.01" vaporized=""/>
    <tripinfo id="16" depart="13.00" departLane="-158796982#1_0" departPos="5.10" departSpeed="0.00" departDelay="0.00" arrival="582.00" arrivalLane="-266057209#1_0" arrivalPos="30.57" arrivalSpeed="11.69" duration="569.00" routeLength="5178.66" waitingTime="112.00" waitingCount="13" stopTime="0.00" timeLoss="262.78" rerouteNo="2" devices="tripinfo_16" vType="DEFAULT_VEHTYPE" speedFactor="0.88" vaporized=""/>
    <tripinfo id="58" depart="54.00" departLane="381892606_0" departPos="5.10" departSpeed="0.00" departDelay="0.00" arrival="590.00" arrivalLane="72450928#6_0" arrivalPos="24.10" arrivalSpeed="11.60" duration="536.00" routeLength="4706.07" waitingTime="211.00" waitingCount="8" stopTime="0.00" timeLoss="329.39" rerouteNo="0" devices="tripinfo_58" vType="DEFAULT_VEHTYPE" speedFactor="1.00" vaporized=""/>
    <tripinfo id="40" depart="32.00" departLane="51813024#4_0" departPos="5.10" departSpeed="0.00" departDelay="0.00" arrival="593.00" arrivalLane="704101600#0_0" arrivalPos="45.39" arrivalSpeed="15.57" duration="561.00" routeLength="2467.48" waitingTime="376.00" waitingCount="5" stopTime="0.00" timeLoss="457.02" rerouteNo="0" devices="tripinfo_40" vType="DEFAULT_VEHTYPE" speedFactor="1.18" vaporized=""/>
    <tripinfo id="55" depart="47.00" departLane="77998955#3_0" departPos="5.10" departSpeed="0.00" departDelay="0.00" arrival="605.00" arrivalLane="-365633482#3_0" arrivalPos="22.02" arrivalSpeed="13.67" duration="558.00" routeLength="3136.82" waitingTime="303.00" waitingCount="5" stopTime="0.00" timeLoss="382.22" rerouteNo="0" devices="tripinfo_55" vType="DEFAULT_VEHTYPE" speedFactor="1.02" vaporized=""/>
    <tripinfo id="7" depart="4.00" departLane="26988014_0" departPos="5.10" departSpeed="0.00" departDelay="0.00" arrival="621.00" arrivalLane="374427263#0_0" arrivalPos="26.24" arrivalSpeed="11.10" duration="617.00" routeLength="6256.39" waitingTime="197.00" waitingCount="8" stopTime="0.00" timeLoss="274.96" rerouteNo="1" devices="tripinfo_7" vType="DEFAULT_VEHTYPE" speedFactor="0.89" vaporized=""/>
    <tripinfo id="213" depart="266.00" departLane="51272318#0_0" departPos="0.20" departSpeed="0.00" departDelay="41.00" arrival="623.00" arrivalLane="330462873_0" arrivalPos="58.21" arrivalSpeed="13.04" duration="357.00" routeLength="3563.67" waitingTime="67.00" waitingCount="7" stopTime="0.00" timeLoss="162.43" rerouteNo="0" devices="tripinfo_213" vType="DEFAULT_VEHTYPE" speedFactor="0.96" vaporized=""/>
    <tripinfo id="411" depart="420.00" departLane="-51272302#0_0" departPos="5.10" departSpeed="0.00" departDelay="0.00" arrival="624.00" arrivalLane="334835605#1_0" arrivalPos="23.02" arrivalSpeed="14.24" duration="204.00" routeLength="2890.34" waitingTime="7.00" waitingCount="1" stopTime="0.00" timeLoss="30.57" rerouteNo="0" devices="tripinfo_411" vType="DEFAULT_VEHTYPE" speedFactor="1.12" vaporized=""/>
    <tripinfo id="156" depart="159.00" departLane="311139734#3_0" departPos="5.10" departSpeed="0.00" departDelay="0.00" arrival="626.00" arrivalLane="309354227#4_0" arrivalPos="8.93" arrivalSpeed="13.86" duration="467.00" routeLength="3694.74" waitingTime="183.00" waitingCount="12" stopTime="0.00" timeLoss="298.73" rerouteNo="0" devices="tripinfo_156" vType="DEFAULT_VEHTYPE" speedFactor="1.07" vaporized=""/>
    <tripinfo id="324" depart="328.00" departLane="158803689#0_0" departPos="5.10" departSpeed="0.00" departDelay="0.00" arrival="637.00" arrivalLane="51272307#1_0" arrivalPos="202.65" arrivalSpeed="16.78" duration="309.00" routeLength="3335.60" waitingTime="60.00" waitingCount="4" stopTime="0.00" timeLoss="158.50" rerouteNo="0" devices="tripinfo_324" vType="DEFAULT_VEHTYPE" speedFactor="1.21" vaporized=""/>
    <tripinfo id="230" depart="246.00" departLane="203321537_0" departPos="5.10" departSpeed="0.00" departDelay="0.00" arrival="641.00" arrivalLane="208601049#0_0" arrivalPos="153.16" arrivalSpeed="13.46" duration="395.00" routeLength="4041.46" waitingTime="91.00" waitingCount="8" stopTime="0.00" timeLoss="181.08" rerouteNo="0" devices="tripinfo_230" vType="DEFAULT_VEHTYPE" speedFactor="1.02" vaporized=""/>
    <tripinfo id="25" depart="17.00" departLane="-242343488#2_0" departPos="5.10" departSpeed="0.00" departDelay="0.00" arrival="644.00" arrivalLane="311964637#3_2" arrivalPos="10.27" arrivalSpeed="16.28" duration="627.00" routeLength="6549.43" waitingTime="113.00" waitingCount="12" stopTime="0.00" timeLoss="254.75" rerouteNo="1" devices="tripinfo_25" vType="DEFAULT_VEHTYPE" speedFactor="0.83" vaporized=""/>
    <tripinfo id="50" depart="42.00" departLane="183840100#10_0" departPos="5.10" departSpeed="0.00" departDelay="0.00" arrival="646.00" arrivalLane="252398627-AddedOnRampEdge_0" arrivalPos="94.46" arrivalSpeed="24.71" duration="604.00" routeLength="4465.32" waitingTime="252.00" waitingCount="12" stopTime="0.00" timeLoss="376.42" rerouteNo="0" devices="tripinfo_50" vType="DEFAULT_VEHTYPE" speedFactor="0.90" vaporized=""/>
    <tripinfo id="327" depart="333.00" departLane="311860250#13_0" departPos="5.10" departSpeed="0.00" departDelay="0.00" arrival="657.00" arrivalLane="236375709#3_0" arrivalPos="8.31" arrivalSpeed="8.14" duration="324.00" routeLength="3461.17" waitingTime="29.00" waitingCount="4" stopTime="0.00" timeLoss="122.92" rerouteNo="0" devices="tripinfo_327" vType="DEFAULT_VEHTYPE" speedFactor="0.98" vaporized=""/>
    <tripinfo id="300" depart="305.00" departLane="-208366772#0_0" departPos="5.10" departSpeed="0.00" departDelay="0.00" arrival="682.00" arrivalLane="51354541#8_0" arrivalPos="45.67" arrivalSpeed="14.41" duration="377.00" routeLength="4149.86" waitingTime="67.00" waitingCount="8" stopTime="0.00" timeLoss="164.19" rerouteNo="0" devices="tripinfo_300" vType="DEFAULT_VEHTYPE" speedFactor="1.09" vaporized=""/>
    <tripinfo id="0" depart="0.00" departLane="-72704595#1_0" departPos="5.10" departSpeed="0.00" departDelay="0.00" arrival="695.00" arrivalLane="-1257895203#6_0" arrivalPos="33.48" arrivalSpeed="22.64" duration="695.00" routeLength="4911.65" waitingTime="252.00" waitingCount="21" stopTime="0.00" timeLoss="484.63" rerouteNo="0" devices="tripinfo_0" vType="DEFAULT_VEHTYPE" speedFactor="1.06" vaporized=""/>
    <tripinfo id="48" depart="42.00" departLane="-73567623#7_0" departPos="5.10" departSpeed="0.00" departDelay="0.00" arrival="698.00" arrivalLane="-330305598#12_0" arrivalPos="33.02" arrivalSpeed="14.27" duration="656.00" routeLength="4958.59" waitingTime="211.00" waitingCount="17" stopTime="0.00" timeLoss="449.13" rerouteNo="0" devices="tripinfo_48" vType="DEFAULT_VEHTYPE" speedFactor="1.09" vaporized=""/>
    <tripinfo id="331" depart="341.00" departLane="197557014#1_0" departPos="5.10" departSpeed="0.00" departDelay="0.00" arrival="700.00" arrivalLane="-311860248#0_0" arrivalPos="44.32" arrivalSpeed="24.80" duration="359.00" routeLength="3908.54" waitingTime="75.00" waitingCount="9" stopTime="0.00" timeLoss="196.98" rerouteNo="1" devices="tripinfo_331" vType="DEFAULT_VEHTYPE" speedFactor="1.16" vaporized=""/>
    <tripinfo id="585" depart="609.00" departLane="158758845#1_0" departPos="5.10" departSpeed="0.00" departDelay="0.00" arrival="728.00" arrivalLane="-773559104#1_0" arrivalPos="103.96" arrivalSpeed="13.39" duration="119.00" routeLength="1201.61" waitingTime="6.00" waitingCount="2" stopTime="0.00" timeLoss="37.89" rerouteNo="0" devices="tripinfo_585" vType="DEFAULT_VEHTYPE" speedFactor="0.98" vaporized=""/>
    <tripinfo id="225" depart="244.00" departLane="-26787974#3_0" departPos="5.10" departSpeed="0.00" departDelay="0.00" arrival="733.00" arrivalLane="90590336#16_0" arrivalPos="2.47" arrivalSpeed="8.21" duration="489.00" routeLength="4262.19" waitingTime="106.00" waitingCount="12" stopTime="0.00" timeLoss="251.25" rerouteNo="0" devices="tripinfo_225" vType="DEFAULT_VEHTYPE" speedFactor="1.00" vaporized=""/>
    <tripinfo id="419" depart="430.00" departLane="-401628855#0_0" departPos="5.10" departSpeed="0.00" departDelay="0.00" arrival="738.00" arrivalLane="221195129#15_0" arrivalPos="85.30" arrivalSpeed="12.32" duration="308.00" routeLength="3251.28" waitingTime="45.00" waitingCount="6" stopTime="0.00" timeLoss="115.99" rerouteNo="0" devices="tripinfo_419" vType="DEFAULT_VEHTYPE" speedFactor="0.95" vaporized=""/>
    <tripinfo id="296" depart="302.00" departLane="244450508#5_0" departPos="5.10" departSpeed="0.00" departDelay="0.00" arrival="739.00" arrivalLane="264410143#1_0" arrivalPos="90.33" arrivalSpeed="23.41" duration="437.00" routeLength="4087.00" waitingTime="156.00" waitingCount="12" stopTime="0.00" timeLoss="285.26" rerouteNo="0" devices="tripinfo_296" vType="DEFAULT_VEHTYPE" speedFactor="1.10" vaporized=""/>
    <tripinfo id="206" depart="218.00" departLane="75844230#1_0" departPos="5.10" departSpeed="0.00" departDelay="0.00" arrival="745.00" arrivalLane="189161728#2_0" arrivalPos="38.22" arrivalSpeed="12.14" duration="527.00" routeLength="3261.12" waitingTime="303.00" waitingCount="5" stopTime="0.00" timeLoss="368.34" rerouteNo="0" devices="tripinfo_206" vType="DEFAULT_VEHTYPE" speedFactor="0.87" vaporized=""/>
    <tripinfo id="47" depart="41.00" departLane="-184723338#2_0" departPos="5.10" departSpeed="0.00" departDelay="0.00" arrival="758.00" arrivalLane="1079011022_0" arrivalPos="13.78" arrivalSpeed="10.07" duration="717.00" routeLength="6057.63" waitingTime="194.00" waitingCount="19" stopTime="0.00" timeLoss="437.32" rerouteNo="1" devices="tripinfo_47" vType="DEFAULT_VEHTYPE" speedFactor="1.04" vaporized=""/>
    <tripinfo id="178" depart="178.00" departLane="-445105367#1_0" departPos="3.86" departSpeed="0.00" departDelay="0.00" arrival="764.00" arrivalLane="-330466878#7_0" arrivalPos="17.16" arrivalSpeed="24.94" duration="586.00" routeLength="6963.79" waitingTime="138.00" waitingCount="9" stopTime="0.00" timeLoss="357.23" rerouteNo="0" devices="tripinfo_178" vType="DEFAULT_VEHTYPE" speedFactor="1.14" vaporized=""/>
    <tripinfo id="118" depart="116.00" departLane="-495024056_0" departPos="5.10" departSpeed="0.00" departDelay="0.00" arrival="770.00" arrivalLane="-203384027_0" arrivalPos="116.74" arrivalSpeed="15.13" duration="654.00" routeLength="6185.81" waitingTime="189.00" waitingCount="15" stopTime="0.00" timeLoss="366.74" rerouteNo="2" devices="tripinfo_118" vType="DEFAULT_VEHTYPE" speedFactor="1.10" vaporized=""/>
    <tripinfo id="577" depart="603.00" departLane="-62080941#2_0" departPos="5.06" departSpeed="0.00" departDelay="0.00" arrival="780.00" arrivalLane="552341330_0" arrivalPos="34.86" arrivalSpeed="12.93" duration="177.00" routeLength="1541.64" waitingTime="24.00" waitingCount="3" stopTime="0.00" timeLoss="84.83" rerouteNo="0" devices="tripinfo_577" vType="DEFAULT_VEHTYPE" speedFactor="0.96" vaporized=""/>
    <tripinfo id="202" depart="214.00" departLane="454931328_0" departPos="0.20" departSpeed="0.00" departDelay="0.00" arrival="784.00" arrivalLane="266064127#1_0" arrivalPos="76.41" arrivalSpeed="23.20" duration="570.00" routeLength="3425.06" waitingTime="264.00" waitingCount="11" stopTime="0.00" timeLoss="394.25" rerouteNo="0" devices="tripinfo_202" vType="DEFAULT_VEHTYPE" speedFactor="0.87" vaporized=""/>
    <tripinfo id="109" depart="109.00" departLane="531922634#0_0" departPos="5.10" departSpeed="0.00" departDelay="0.00" arrival="785.00" arrivalLane="330305602#4_0" arrivalPos="35.51" arrivalSpeed="14.25" duration="676.00" routeLength="7093.13" waitingTime="149.00" waitingCount="16" stopTime="0.00" timeLoss="406.20" rerouteNo="1" devices="tripinfo_109" vType="DEFAULT_VEHTYPE" speedFactor="1.07" vaporized=""/>
    <tripinfo id="350" depart="354.00" departLane="-90590336#15_0" departPos="5.10" departSpeed="0.00" departDelay="0.00" arrival="799.00" arrivalLane="-75844191#6_0" arrivalPos="14.04" arrivalSpeed="10.69" duration="445.00" routeLength="3481.72" waitingTime="131.00" waitingCount="11" stopTime="0.00" timeLoss="258.35" rerouteNo="0" devices="tripinfo_350" vType="DEFAULT_VEHTYPE" speedFactor="1.17" vaporized=""/>
    <tripinfo id="54" depart="46.00" departLane="-75844203#3_0" departPos="5.10" departSpeed="0.00" departDelay="0.00" arrival="801.00" arrivalLane="26788202#8_0" arrivalPos="283.31" arrivalSpeed="15.64" duration="755.00" routeLength="6614.29" waitingTime="228.00" waitingCount="17" stopTime="0.00" timeLoss="454.55" rerouteNo="1" devices="tripinfo_54" vType="DEFAULT_VEHTYPE" speedFactor="1.17" vaporized=""/>
    <tripinfo id="558" depart="583.00" departLane="-330460077#3_0" departPos="5.10" departSpeed="0.00" departDelay="0.00" arrival="804.00" arrivalLane="340670794_0" arrivalPos="25.75" arrivalSpeed="12.00" duration="221.00" routeLength="2170.99" waitingTime="47.00" waitingCount="3" stopTime="0.00" timeLoss="101.72" rerouteNo="1" devices="tripinfo_558" vType="DEFAULT_VEHTYPE" speedFactor="1.10" vaporized=""/>
    <tripinfo id="428" depart="442.00" departLane="72704588#2_0" departPos="5.10" departSpeed="0.00" departDelay="0.00" arrival="844.00" arrivalLane="-189781450#0_0" arrivalPos="58.55" arrivalSpeed="13.75" duration="402.00" routeLength="4069.49" waitingTime="91.00" waitingCount="6" stopTime="0.00" timeLoss="197.15" rerouteNo="0" devices="tripinfo_428" vType="DEFAULT_VEHTYPE" speedFactor="1.00" vaporized=""/>
    <tripinfo id="380" depart="394.00" departLane="72704591#2_0" departPos="0.20" departSpeed="0.00" departDelay="0.00" arrival="846.00" arrivalLane="52907071#1_0" arrivalPos="185.91" arrivalSpeed="13.76" duration="452.00" routeLength="4241.48" waitingTime="119.00" waitingCount="8" stopTime="0.00" timeLoss="227.12" rerouteNo="0" devices="tripinfo_380" vType="DEFAULT_VEHTYPE" speedFactor="1.02" vaporized=""/>
    <tripinfo id="95" depart="96.00" departLane="160053384_0" departPos="5.10" departSpeed="0.00" departDelay="0.00" arrival="854.00" arrivalLane="-1257895203#11_0" arrivalPos="45.01" arrivalSpeed="14.39" duration="758.00" routeLength="7252.47" waitingTime="294.00" waitingCount="8" stopTime="0.00" timeLoss="411.37" rerouteNo="1" devices="tripinfo_95" vType="DEFAULT_VEHTYPE" speedFactor="0.89" vaporized=""/>
    <tripinfo id="122" depart="121.00" departLane="51354499#2_0" departPos="5.10" departSpeed="0.00" departDelay="0.00" arrival="857.00" arrivalLane="203578977#1_0" arrivalPos="0.20" arrivalSpeed="3.49" duration="736.00" routeLength="5899.27" waitingTime="272.00" waitingCount="18" stopTime="0.00" timeLoss="469.45" rerouteNo="0" devices="tripinfo_122" vType="DEFAULT_VEHTYPE" speedFactor="0.99" vaporized=""/>
    <tripinfo id="2" depart="2.00" departLane="75844318#1_0" departPos="5.10" departSpeed="0.00" departDelay="0.00" arrival="858.00" arrivalLane="-72704591#1_0" arrivalPos="114.78" arrivalSpeed="13.80" duration="856.00" routeLength="7473.99" waitingTime="228.00" waitingCount="15" stopTime="0.00" timeLoss="426.11" rerouteNo="1" devices="tripinfo_2" vType="DEFAULT_VEHTYPE" speedFactor="1.01" vaporized=""/>
    <tripinfo id="83" depart="79.00" departLane="324294428#8_0" departPos="5.10" departSpeed="0.00" departDelay="0.00" arrival="859.00" arrivalLane="160125697#1_2" arrivalPos="156.29" arrivalSpeed="25.08" duration="780.00" routeLength="3995.20" waitingTime="465.00" waitingCount="10" stopTime="0.00" timeLoss="617.47" rerouteNo="0" devices="tripinfo_83" vType="DEFAULT_VEHTYPE" speedFactor="1.03" vaporized=""/>
    <tripinfo id="664" depart="700.00" departLane="236378103#1_0" departPos="5.10" departSpeed="0.00" departDelay="0.00" arrival="859.00" arrivalLane="209697431#3_0" arrivalPos="42.72" arrivalSpeed="8.06" duration="159.00" routeLength="1267.53" waitingTime="34.00" waitingCount="5" stopTime="0.00" timeLoss="99.10" rerouteNo="0" devices="tripinfo_664" vType="DEFAULT_VEHTYPE" speedFactor="0.99" vaporized=""/>
    <tripinfo id="568" depart="591.00" departLane="-90590336#5_0" departPos="5.10" departSpeed="0.00" departDelay="0.00" arrival="860.00" arrivalLane="395250898#0_0" arrivalPos="0.20" arrivalSpeed="3.02" duration="269.00" routeLength="2112.14" waitingTime="62.00" waitingCount="5" stopTime="0.00" timeLoss="124.29" rerouteNo="0" devices="tripinfo_568" vType="DEFAULT_VEHTYPE" speedFactor="1.17" vaporized=""/>